Model for PE

        456     atoms
        454     bonds
        452     angles
         30     dihedrals

       2     atom types
       1     bond types
       3     angle types
       1     dihedral types

   -55.000   55.000  xlo xhi
   -105.000   105.000  ylo yhi
   -20 20  zlo zhi

Atoms

        1   1   1  0     48.5000      -1.5000      0.0000
        2   1   1  0     47.5000      -1.5000      0.0000
        3   1   1  0     46.5000      -1.5000      0.0000
        4   1   1  0     45.5000      -1.5000      0.0000
        5   1   1  0     44.5000      -1.5000      0.0000
        6   1   1  0     43.5000      -1.5000      0.0000
        7   1   1  0     42.5000      -1.5000      0.0000
        8   1   1  0     41.5000      -1.5000      0.0000
        9   1   1  0     40.5000      -1.5000      0.0000
       10   1   1  0     39.5000      -1.5000      0.0000
       11   1   1  0     38.5000      -1.5000      0.0000
       12   1   1  0     37.5000      -1.5000      0.0000
       13   1   1  0     36.5000      -1.5000      0.0000
       14   1   1  0     35.5000      -1.5000      0.0000
       15   1   1  0     34.5000      -1.5000      0.0000
       16   1   1  0     33.5000      -1.5000      0.0000
       17   1   1  0     32.5000      -1.5000      0.0000
       18   1   1  0     31.5000      -1.5000      0.0000
       19   1   1  0     30.5000      -1.5000      0.0000
       20   1   1  0     29.5000      -1.5000      0.0000
       21   1   1  0     28.5000      -1.5000      0.0000
       22   1   1  0     27.5000      -1.5000      0.0000
       23   1   1  0     26.5000      -1.5000      0.0000
       24   1   1  0     25.5000      -1.5000      0.0000
       25   1   1  0     24.5000      -1.5000      0.0000
       26   1   1  0     23.5000      -1.5000      0.0000
       27   1   1  0     22.5000      -1.5000      0.0000
       28   1   1  0     21.5000      -1.5000      0.0000
       29   1   1  0     20.5000      -1.5000      0.0000
       30   1   1  0     19.5000      -1.5000      0.0000
       31   1   1  0     18.5000      -1.5000      0.0000
       32   1   1  0     17.5000      -1.5000      0.0000
       33   1   1  0     16.5000      -1.5000      0.0000
       34   1   1  0     15.5000      -1.5000      0.0000
       35   1   1  0     14.5000      -1.5000      0.0000
       36   1   1  0     13.5000      -1.5000      0.0000
       37   1   1  0     12.5000      -1.5000      0.0000
       38   1   1  0     11.5000      -1.5000      0.0000
       39   1   1  0     10.5000      -1.5000      0.0000
       40   1   1  0      9.5000      -1.5000      0.0000
       41   1   1  0      8.5000      -1.5000      0.0000
       42   1   1  0      7.5000      -1.5000      0.0000
       43   1   1  0      6.5000      -1.5000      0.0000
       44   1   1  0      5.5000      -1.5000      0.0000
       45   1   1  0      4.5000      -1.5000      0.0000
       46   1   1  0      3.5000      -1.5000      0.0000
       47   1   1  0      2.5000      -1.5000      0.0000
       48   1   1  0      1.5000      -1.5000      0.0000
       49   1   1  0      0.5000      -1.5000      0.0000
       50   1   1  0     -0.5000      -1.5000      0.0000
       51   1   1  0     -1.5000      -1.5000      0.0000
       52   1   1  0     -1.5000      -0.5000      0.0000
       53   1   1  0     -1.5000       0.5000      0.0000
       54   1   1  0     -1.5000       1.5000      0.0000
       55   1   1  0     -1.5000       2.5000      0.0000
       56   1   1  0     -1.5000       3.5000      0.0000
       57   1   1  0     -1.5000       4.5000      0.0000
       58   1   1  0     -1.5000       5.5000      0.0000
       59   1   1  0     -1.5000       6.5000      0.0000
       60   1   1  0     -1.5000       7.5000      0.0000
       61   1   1  0     -1.5000       8.5000      0.0000
       62   1   1  0     -1.5000       9.5000      0.0000
       63   1   1  0     -1.5000      10.5000      0.0000
       64   1   1  0     -1.5000      11.5000      0.0000
       65   1   1  0     -1.5000      12.5000      0.0000
       66   1   1  0     -1.5000      13.5000      0.0000
       67   1   1  0     -1.5000      14.5000      0.0000
       68   1   1  0     -1.5000      15.5000      0.0000
       69   1   1  0     -1.5000      16.5000      0.0000
       70   1   1  0     -1.5000      17.5000      0.0000
       71   1   1  0     -1.5000      18.5000      0.0000
       72   1   1  0     -1.5000      19.5000      0.0000
       73   1   1  0     -1.5000      20.5000      0.0000
       74   1   1  0     -1.5000      21.5000      0.0000
       75   1   1  0     -1.5000      22.5000      0.0000
       76   1   1  0     -1.5000      23.5000      0.0000
       77   1   1  0     -1.5000      24.5000      0.0000
       78   1   1  0     -1.5000      25.5000      0.0000
       79   1   1  0     -1.5000      26.5000      0.0000
       80   1   1  0     -1.5000      27.5000      0.0000
       81   1   1  0     -1.5000      28.5000      0.0000
       82   1   1  0     -1.5000      29.5000      0.0000
       83   1   1  0     -1.5000      30.5000      0.0000
       84   1   1  0     -1.5000      31.5000      0.0000
       85   1   1  0     -1.5000      32.5000      0.0000
       86   1   1  0     -1.5000      33.5000      0.0000
       87   1   1  0     -1.5000      34.5000      0.0000
       88   1   1  0     -1.5000      35.5000      0.0000
       89   1   1  0     -1.5000      36.5000      0.0000
       90   1   1  0     -1.5000      37.5000      0.0000
       91   1   1  0     -1.5000      38.5000      0.0000
       92   1   1  0     -1.5000      39.5000      0.0000
       93   1   1  0     -1.5000      40.5000      0.0000
       94   1   1  0     -1.5000      41.5000      0.0000
       95   1   1  0     -1.5000      42.5000      0.0000
       96   1   1  0     -1.5000      43.5000      0.0000
       97   1   1  0     -1.5000      44.5000      0.0000
       98   1   1  0     -1.5000      45.5000      0.0000
       99   1   1  0     -1.5000      46.5000      0.0000
      100   1   1  0     -1.5000      47.5000      0.0000
      101   1   1  0     -1.5000      48.5000      0.0000
      102   1   1  0     -1.5000      49.5000      0.0000
      103   1   1  0     -1.5000      50.5000      0.0000
      104   1   1  0     -1.5000      51.5000      0.0000
      105   1   1  0     -1.5000      52.5000      0.0000
      106   1   1  0     -1.5000      53.5000      0.0000
      107   1   1  0     -1.5000      54.5000      0.0000
      108   1   1  0     -1.5000      55.5000      0.0000
      109   1   1  0     -1.5000      56.5000      0.0000
      110   1   1  0     -1.5000      57.5000      0.0000
      111   1   1  0     -1.5000      58.5000      0.0000
      112   1   1  0     -1.5000      59.5000      0.0000
      113   1   1  0     -1.5000      60.5000      0.0000
      114   1   1  0     -1.5000      61.5000      0.0000
      115   1   1  0     -1.5000      62.5000      0.0000
      116   1   1  0     -1.5000      63.5000      0.0000
      117   1   1  0     -1.5000      64.5000      0.0000
      118   1   1  0     -1.5000      65.5000      0.0000
      119   1   1  0     -1.5000      66.5000      0.0000
      120   1   1  0     -1.5000      67.5000      0.0000
      121   1   1  0     -1.5000      68.5000      0.0000
      122   1   1  0     -1.5000      69.5000      0.0000
      123   1   1  0     -1.5000      70.5000      0.0000
      124   1   1  0     -1.5000      71.5000      0.0000
      125   1   1  0     -1.5000      72.5000      0.0000
      126   1   1  0     -1.5000      73.5000      0.0000
      127   1   1  0     -1.5000      74.5000      0.0000
      128   1   1  0     -1.5000      75.5000      0.0000
      129   1   1  0     -1.5000      76.5000      0.0000
      130   1   1  0     -1.5000      77.5000      0.0000
      131   1   1  0     -1.5000      78.5000      0.0000
      132   1   1  0     -1.5000      79.5000      0.0000
      133   1   1  0     -1.5000      80.5000      0.0000
      134   1   1  0     -1.5000      81.5000      0.0000
      135   1   1  0     -1.5000      82.5000      0.0000
      136   1   1  0     -1.5000      83.5000      0.0000
      137   1   1  0     -1.5000      84.5000      0.0000
      138   1   1  0     -1.5000      85.5000      0.0000
      139   1   1  0     -1.5000      86.5000      0.0000
      140   1   1  0     -1.5000      87.5000      0.0000
      141   1   1  0     -1.5000      88.5000      0.0000
      142   1   1  0     -1.5000      89.5000      0.0000
      143   1   1  0     -1.5000      90.5000      0.0000
      144   1   1  0     -1.5000      91.5000      0.0000
      145   1   1  0     -1.5000      92.5000      0.0000
      146   1   1  0     -1.5000      93.5000      0.0000
      147   1   1  0     -1.5000      94.5000      0.0000
      148   1   1  0     -1.5000      95.5000      0.0000
      149   1   1  0     -1.5000      96.5000      0.0000
      150   1   1  0     -1.5000      97.5000      0.0000
      151   1   1  0     -1.5000      98.5000      0.0000
      152   2   1  0    -49.0000       1.0000     -2.0000
      153   2   1  0    -48.0000       1.0000     -2.0000
      154   2   1  0    -47.0000       1.0000     -2.0000
      155   2   1  0    -46.0000       1.0000     -2.0000
      156   2   1  0    -45.0000       1.0000     -2.0000
      157   2   1  0    -44.0000       1.0000     -2.0000
      158   2   1  0    -43.0000       1.0000     -2.0000
      159   2   1  0    -42.0000       1.0000     -2.0000
      160   2   1  0    -41.0000       1.0000     -2.0000
      161   2   1  0    -40.0000       1.0000     -2.0000
      162   2   1  0    -39.0000       1.0000     -2.0000
      163   2   1  0    -38.0000       1.0000     -2.0000
      164   2   1  0    -37.0000       1.0000     -2.0000
      165   2   1  0    -36.0000       1.0000     -2.0000
      166   2   1  0    -35.0000       1.0000     -2.0000
      167   2   1  0    -34.0000       1.0000     -2.0000
      168   2   1  0    -33.0000       1.0000     -2.0000
      169   2   1  0    -32.0000       1.0000     -2.0000
      170   2   1  0    -31.0000       1.0000     -2.0000
      171   2   1  0    -30.0000       1.0000     -2.0000
      172   2   1  0    -29.0000       1.0000     -2.0000
      173   2   1  0    -28.0000       1.0000     -2.0000
      174   2   1  0    -27.0000       1.0000     -2.0000
      175   2   1  0    -26.0000       1.0000     -2.0000
      176   2   1  0    -25.0000       1.0000     -2.0000
      177   2   1  0    -24.0000       1.0000     -2.0000
      178   2   1  0    -23.0000       1.0000     -2.0000
      179   2   1  0    -22.0000       1.0000     -2.0000
      180   2   1  0    -21.0000       1.0000     -2.0000
      181   2   1  0    -20.0000       1.0000     -2.0000
      182   2   1  0    -19.0000       1.0000     -2.0000
      183   2   1  0    -18.0000       1.0000     -2.0000
      184   2   1  0    -17.0000       1.0000     -2.0000
      185   2   1  0    -16.0000       1.0000     -2.0000
      186   2   1  0    -15.0000       1.0000     -2.0000
      187   2   1  0    -14.0000       1.0000     -2.0000
      188   2   1  0    -13.0000       1.0000     -2.0000
      189   2   1  0    -12.0000       1.0000     -2.0000
      190   2   1  0    -11.0000       1.0000     -2.0000
      191   2   1  0    -10.0000       1.0000     -2.0000
      192   2   1  0     -9.0000       1.0000     -2.0000
      193   2   1  0     -8.0000       1.0000     -2.0000
      194   2   1  0     -7.0000       1.0000     -2.0000
      195   2   1  0     -6.0000       1.0000     -2.0000
      196   2   1  0     -5.0000       1.0000     -2.0000
      197   2   1  0     -4.0000       1.0000     -2.0000
      198   2   1  0     -3.0000       1.0000     -2.0000
      199   2   1  0     -2.0000       1.0000     -2.0000
      200   2   1  0     -1.0000       1.0000     -2.0000
      201   2   1  0      0.0000       1.0000     -2.0000
      202   2   1  0      1.0000       1.0000     -2.0000
      203   2   1  0      1.0000       1.0000     -1.0000
      204   2   1  0      1.0000       1.0000      0.0000
      205   2   1  0      1.0000       1.0000      1.0000
      206   2   1  0      1.0000       1.0000      2.0000
      207   2   1  0      1.0000       0.0000      2.0000
      208   2   1  0      1.0000      -1.0000      2.0000
      209   2   1  0      1.0000      -2.0000      2.0000
      210   2   1  0      1.0000      -3.0000      2.0000
      211   2   1  0      1.0000      -4.0000      2.0000
      212   2   1  0      1.0000      -5.0000      2.0000
      213   2   1  0      1.0000      -6.0000      2.0000
      214   2   1  0      1.0000      -7.0000      2.0000
      215   2   1  0      1.0000      -8.0000      2.0000
      216   2   1  0      1.0000      -9.0000      2.0000
      217   2   1  0      1.0000     -10.0000      2.0000
      218   2   1  0      1.0000     -11.0000      2.0000
      219   2   1  0      1.0000     -12.0000      2.0000
      220   2   1  0      1.0000     -13.0000      2.0000
      221   2   1  0      1.0000     -14.0000      2.0000
      222   2   1  0      1.0000     -15.0000      2.0000
      223   2   1  0      1.0000     -16.0000      2.0000
      224   2   1  0      1.0000     -17.0000      2.0000
      225   2   1  0      1.0000     -18.0000      2.0000
      226   2   1  0      1.0000     -19.0000      2.0000
      227   2   1  0      1.0000     -20.0000      2.0000
      228   2   1  0      1.0000     -21.0000      2.0000
      229   2   1  0      1.0000     -22.0000      2.0000
      230   2   1  0      1.0000     -23.0000      2.0000
      231   2   1  0      1.0000     -24.0000      2.0000
      232   2   1  0      1.0000     -25.0000      2.0000
      233   2   1  0      1.0000     -26.0000      2.0000
      234   2   1  0      1.0000     -27.0000      2.0000
      235   2   1  0      1.0000     -28.0000      2.0000
      236   2   1  0      1.0000     -29.0000      2.0000
      237   2   1  0      1.0000     -30.0000      2.0000
      238   2   1  0      1.0000     -31.0000      2.0000
      239   2   1  0      1.0000     -32.0000      2.0000
      240   2   1  0      1.0000     -33.0000      2.0000
      241   2   1  0      1.0000     -34.0000      2.0000
      242   2   1  0      1.0000     -35.0000      2.0000
      243   2   1  0      1.0000     -36.0000      2.0000
      244   2   1  0      1.0000     -37.0000      2.0000
      245   2   1  0      1.0000     -38.0000      2.0000
      246   2   1  0      1.0000     -39.0000      2.0000
      247   2   1  0      1.0000     -40.0000      2.0000
      248   2   1  0      1.0000     -41.0000      2.0000
      249   2   1  0      1.0000     -42.0000      2.0000
      250   2   1  0      1.0000     -43.0000      2.0000
      251   2   1  0      1.0000     -44.0000      2.0000
      252   2   1  0      1.0000     -45.0000      2.0000
      253   2   1  0      1.0000     -46.0000      2.0000
      254   2   1  0      1.0000     -47.0000      2.0000
      255   2   1  0      1.0000     -48.0000      2.0000
      256   2   1  0      1.0000     -49.0000      2.0000
      257   2   1  0      1.0000     -50.0000      2.0000
      258   2   1  0      1.0000     -51.0000      2.0000
      259   2   1  0      1.0000     -52.0000      2.0000
      260   2   1  0      1.0000     -53.0000      2.0000
      261   2   1  0      1.0000     -54.0000      2.0000
      262   2   1  0      1.0000     -55.0000      2.0000
      263   2   1  0      1.0000     -56.0000      2.0000
      264   2   1  0      1.0000     -57.0000      2.0000
      265   2   1  0      1.0000     -58.0000      2.0000
      266   2   1  0      1.0000     -59.0000      2.0000
      267   2   1  0      1.0000     -60.0000      2.0000
      268   2   1  0      1.0000     -61.0000      2.0000
      269   2   1  0      1.0000     -62.0000      2.0000
      270   2   1  0      1.0000     -63.0000      2.0000
      271   2   1  0      1.0000     -64.0000      2.0000
      272   2   1  0      1.0000     -65.0000      2.0000
      273   2   1  0      1.0000     -66.0000      2.0000
      274   2   1  0      1.0000     -67.0000      2.0000
      275   2   1  0      1.0000     -68.0000      2.0000
      276   2   1  0      1.0000     -69.0000      2.0000
      277   2   1  0      1.0000     -70.0000      2.0000
      278   2   1  0      1.0000     -71.0000      2.0000
      279   2   1  0      1.0000     -72.0000      2.0000
      280   2   1  0      1.0000     -73.0000      2.0000
      281   2   1  0      1.0000     -74.0000      2.0000
      282   2   1  0      1.0000     -75.0000      2.0000
      283   2   1  0      1.0000     -76.0000      2.0000
      284   2   1  0      1.0000     -77.0000      2.0000
      285   2   1  0      1.0000     -78.0000      2.0000
      286   2   1  0      1.0000     -79.0000      2.0000
      287   2   1  0      1.0000     -80.0000      2.0000
      288   2   1  0      1.0000     -81.0000      2.0000
      289   2   1  0      1.0000     -82.0000      2.0000
      290   2   1  0      1.0000     -83.0000      2.0000
      291   2   1  0      1.0000     -84.0000      2.0000
      292   2   1  0      1.0000     -85.0000      2.0000
      293   2   1  0      1.0000     -86.0000      2.0000
      294   2   1  0      1.0000     -87.0000      2.0000
      295   2   1  0      1.0000     -88.0000      2.0000
      296   2   1  0      1.0000     -89.0000      2.0000
      297   2   1  0      1.0000     -90.0000      2.0000
      298   2   1  0      1.0000     -91.0000      2.0000
      299   2   1  0      1.0000     -92.0000      2.0000
      300   2   1  0      1.0000     -93.0000      2.0000
      301   2   1  0      1.0000     -94.0000      2.0000
      302   2   1  0      1.0000     -95.0000      2.0000
      303   2   1  0      1.0000     -96.0000      2.0000
      304   2   1  0      1.0000     -97.0000      2.0000
      305   2   1  0      1.0000     -98.0000      2.0000
      306   2   1  0      1.0000     -99.0000      2.0000
      307   3   2  0     39.5000      -1.5000      1.0000
      308   3   2  0     39.5000      -1.5000      2.0000
      309   3   2  0     39.5000      -1.5000      3.0000
      310   3   2  0     39.5000      -1.5000      4.0000
      311   3   2  0     39.5000      -1.5000      5.0000
      312   3   2  0     29.5000      -1.5000     -1.0000
      313   3   2  0     29.5000      -1.5000     -2.0000
      314   3   2  0     29.5000      -1.5000     -3.0000
      315   3   2  0     29.5000      -1.5000     -4.0000
      316   3   2  0     29.5000      -1.5000     -5.0000
      317   3   2  0     19.5000      -1.5000     -1.0000
      318   3   2  0     19.5000      -1.5000     -2.0000
      319   3   2  0     19.5000      -1.5000     -3.0000
      320   3   2  0     19.5000      -1.5000     -4.0000
      321   3   2  0     19.5000      -1.5000     -5.0000
      322   3   2  0      9.5000      -1.5000     -1.0000
      323   3   2  0      9.5000      -1.5000     -2.0000
      324   3   2  0      9.5000      -1.5000     -3.0000
      325   3   2  0      9.5000      -1.5000     -4.0000
      326   3   2  0      9.5000      -1.5000     -5.0000
      327   3   2  0     -0.5000      -1.5000     -1.0000
      328   3   2  0     -0.5000      -1.5000     -2.0000
      329   3   2  0     -0.5000      -1.5000     -3.0000
      330   3   2  0     -0.5000      -1.5000     -4.0000
      331   3   2  0     -0.5000      -1.5000     -5.0000
      332   3   2  0     -1.5000       7.5000      1.0000
      333   3   2  0     -1.5000       7.5000      2.0000
      334   3   2  0     -1.5000       7.5000      3.0000
      335   3   2  0     -1.5000       7.5000      4.0000
      336   3   2  0     -1.5000       7.5000      5.0000
      337   3   2  0     -1.5000      17.5000      1.0000
      338   3   2  0     -1.5000      17.5000      2.0000
      339   3   2  0     -1.5000      17.5000      3.0000
      340   3   2  0     -1.5000      17.5000      4.0000
      341   3   2  0     -1.5000      17.5000      5.0000
      342   3   2  0     -1.5000      27.5000     -1.0000
      343   3   2  0     -1.5000      27.5000     -2.0000
      344   3   2  0     -1.5000      27.5000     -3.0000
      345   3   2  0     -1.5000      27.5000     -4.0000
      346   3   2  0     -1.5000      27.5000     -5.0000
      347   3   2  0     -1.5000      37.5000      1.0000
      348   3   2  0     -1.5000      37.5000      2.0000
      349   3   2  0     -1.5000      37.5000      3.0000
      350   3   2  0     -1.5000      37.5000      4.0000
      351   3   2  0     -1.5000      37.5000      5.0000
      352   3   2  0     -1.5000      47.5000     -1.0000
      353   3   2  0     -1.5000      47.5000     -2.0000
      354   3   2  0     -1.5000      47.5000     -3.0000
      355   3   2  0     -1.5000      47.5000     -4.0000
      356   3   2  0     -1.5000      47.5000     -5.0000
      357   3   2  0     -1.5000      57.5000     -1.0000
      358   3   2  0     -1.5000      57.5000     -2.0000
      359   3   2  0     -1.5000      57.5000     -3.0000
      360   3   2  0     -1.5000      57.5000     -4.0000
      361   3   2  0     -1.5000      57.5000     -5.0000
      362   3   2  0     -1.5000      67.5000     -1.0000
      363   3   2  0     -1.5000      67.5000     -2.0000
      364   3   2  0     -1.5000      67.5000     -3.0000
      365   3   2  0     -1.5000      67.5000     -4.0000
      366   3   2  0     -1.5000      67.5000     -5.0000
      367   3   2  0     -1.5000      77.5000      1.0000
      368   3   2  0     -1.5000      77.5000      2.0000
      369   3   2  0     -1.5000      77.5000      3.0000
      370   3   2  0     -1.5000      77.5000      4.0000
      371   3   2  0     -1.5000      77.5000      5.0000
      372   3   2  0     -1.5000      87.5000      1.0000
      373   3   2  0     -1.5000      87.5000      2.0000
      374   3   2  0     -1.5000      87.5000      3.0000
      375   3   2  0     -1.5000      87.5000      4.0000
      376   3   2  0     -1.5000      87.5000      5.0000
      377   3   2  0     -1.5000      97.5000     -1.0000
      378   3   2  0     -1.5000      97.5000     -2.0000
      379   3   2  0     -1.5000      97.5000     -3.0000
      380   3   2  0     -1.5000      97.5000     -4.0000
      381   3   2  0     -1.5000      97.5000     -5.0000
      382   3   2  0    -41.0000       1.0000     -3.0000
      383   3   2  0    -41.0000       1.0000     -4.0000
      384   3   2  0    -41.0000       1.0000     -5.0000
      385   3   2  0    -41.0000       1.0000     -6.0000
      386   3   2  0    -41.0000       1.0000     -7.0000
      387   3   2  0    -31.0000       1.0000     -3.0000
      388   3   2  0    -31.0000       1.0000     -4.0000
      389   3   2  0    -31.0000       1.0000     -5.0000
      390   3   2  0    -31.0000       1.0000     -6.0000
      391   3   2  0    -31.0000       1.0000     -7.0000
      392   3   2  0    -21.0000       1.0000     -1.0000
      393   3   2  0    -21.0000       1.0000      0.0000
      394   3   2  0    -21.0000       1.0000      1.0000
      395   3   2  0    -21.0000       1.0000      2.0000
      396   3   2  0    -21.0000       1.0000      3.0000
      397   3   2  0    -11.0000       1.0000     -1.0000
      398   3   2  0    -11.0000       1.0000      0.0000
      399   3   2  0    -11.0000       1.0000      1.0000
      400   3   2  0    -11.0000       1.0000      2.0000
      401   3   2  0    -11.0000       1.0000      3.0000
      402   3   2  0     -1.0000       1.0000     -1.0000
      403   3   2  0     -1.0000       1.0000      0.0000
      404   3   2  0     -1.0000       1.0000      1.0000
      405   3   2  0     -1.0000       1.0000      2.0000
      406   3   2  0     -1.0000       1.0000      3.0000
      407   3   2  0      1.0000      -3.0000      1.0000
      408   3   2  0      1.0000      -3.0000      0.0000
      409   3   2  0      1.0000      -3.0000     -1.0000
      410   3   2  0      1.0000      -3.0000     -2.0000
      411   3   2  0      1.0000      -3.0000     -3.0000
      412   3   2  0      1.0000     -13.0000      3.0000
      413   3   2  0      1.0000     -13.0000      4.0000
      414   3   2  0      1.0000     -13.0000      5.0000
      415   3   2  0      1.0000     -13.0000      6.0000
      416   3   2  0      1.0000     -13.0000      7.0000
      417   3   2  0      1.0000     -23.0000      3.0000
      418   3   2  0      1.0000     -23.0000      4.0000
      419   3   2  0      1.0000     -23.0000      5.0000
      420   3   2  0      1.0000     -23.0000      6.0000
      421   3   2  0      1.0000     -23.0000      7.0000
      422   3   2  0      1.0000     -33.0000      1.0000
      423   3   2  0      1.0000     -33.0000      0.0000
      424   3   2  0      1.0000     -33.0000     -1.0000
      425   3   2  0      1.0000     -33.0000     -2.0000
      426   3   2  0      1.0000     -33.0000     -3.0000
      427   3   2  0      1.0000     -43.0000      1.0000
      428   3   2  0      1.0000     -43.0000      0.0000
      429   3   2  0      1.0000     -43.0000     -1.0000
      430   3   2  0      1.0000     -43.0000     -2.0000
      431   3   2  0      1.0000     -43.0000     -3.0000
      432   3   2  0      1.0000     -53.0000      1.0000
      433   3   2  0      1.0000     -53.0000      0.0000
      434   3   2  0      1.0000     -53.0000     -1.0000
      435   3   2  0      1.0000     -53.0000     -2.0000
      436   3   2  0      1.0000     -53.0000     -3.0000
      437   3   2  0      1.0000     -63.0000      3.0000
      438   3   2  0      1.0000     -63.0000      4.0000
      439   3   2  0      1.0000     -63.0000      5.0000
      440   3   2  0      1.0000     -63.0000      6.0000
      441   3   2  0      1.0000     -63.0000      7.0000
      442   3   2  0      1.0000     -73.0000      1.0000
      443   3   2  0      1.0000     -73.0000      0.0000
      444   3   2  0      1.0000     -73.0000     -1.0000
      445   3   2  0      1.0000     -73.0000     -2.0000
      446   3   2  0      1.0000     -73.0000     -3.0000
      447   3   2  0      1.0000     -83.0000      3.0000
      448   3   2  0      1.0000     -83.0000      4.0000
      449   3   2  0      1.0000     -83.0000      5.0000
      450   3   2  0      1.0000     -83.0000      6.0000
      451   3   2  0      1.0000     -83.0000      7.0000
      452   3   2  0      1.0000     -93.0000      1.0000
      453   3   2  0      1.0000     -93.0000      0.0000
      454   3   2  0      1.0000     -93.0000     -1.0000
      455   3   2  0      1.0000     -93.0000     -2.0000
      456   3   2  0      1.0000     -93.0000     -3.0000

Bonds

        1     1        1     2
        2     1        2     3
        3     1        3     4
        4     1        4     5
        5     1        5     6
        6     1        6     7
        7     1        7     8
        8     1        8     9
        9     1        9    10
       10     1       10    11
       11     1       11    12
       12     1       12    13
       13     1       13    14
       14     1       14    15
       15     1       15    16
       16     1       16    17
       17     1       17    18
       18     1       18    19
       19     1       19    20
       20     1       20    21
       21     1       21    22
       22     1       22    23
       23     1       23    24
       24     1       24    25
       25     1       25    26
       26     1       26    27
       27     1       27    28
       28     1       28    29
       29     1       29    30
       30     1       30    31
       31     1       31    32
       32     1       32    33
       33     1       33    34
       34     1       34    35
       35     1       35    36
       36     1       36    37
       37     1       37    38
       38     1       38    39
       39     1       39    40
       40     1       40    41
       41     1       41    42
       42     1       42    43
       43     1       43    44
       44     1       44    45
       45     1       45    46
       46     1       46    47
       47     1       47    48
       48     1       48    49
       49     1       49    50
       50     1       50    51
       51     1       51    52
       52     1       52    53
       53     1       53    54
       54     1       54    55
       55     1       55    56
       56     1       56    57
       57     1       57    58
       58     1       58    59
       59     1       59    60
       60     1       60    61
       61     1       61    62
       62     1       62    63
       63     1       63    64
       64     1       64    65
       65     1       65    66
       66     1       66    67
       67     1       67    68
       68     1       68    69
       69     1       69    70
       70     1       70    71
       71     1       71    72
       72     1       72    73
       73     1       73    74
       74     1       74    75
       75     1       75    76
       76     1       76    77
       77     1       77    78
       78     1       78    79
       79     1       79    80
       80     1       80    81
       81     1       81    82
       82     1       82    83
       83     1       83    84
       84     1       84    85
       85     1       85    86
       86     1       86    87
       87     1       87    88
       88     1       88    89
       89     1       89    90
       90     1       90    91
       91     1       91    92
       92     1       92    93
       93     1       93    94
       94     1       94    95
       95     1       95    96
       96     1       96    97
       97     1       97    98
       98     1       98    99
       99     1       99   100
      100     1      100   101
      101     1      101   102
      102     1      102   103
      103     1      103   104
      104     1      104   105