LAMMPS Data File

9080 atoms
9040 bonds
9000 angles
360 dihedrals

3 atom types
1 bond types
3 angle types
1 dihedral types

-25.00 25.00 xlo xhi
-25.00 25.00 ylo yhi
-25.00 25.00 zlo zhi

Atoms # full

1 1 1 0.0 -7.912798 -3.716626 4.840108
2 1 1 0.0 -7.951633 -4.359407 4.075044
3 1 1 0.0 -8.073403 -5.151078 3.476354
4 1 1 0.0 -8.146442 -5.875259 2.790623
5 1 1 0.0 -8.357429 -6.722184 2.302562
6 1 1 0.0 -8.280868 -7.375330 1.549211
7 1 1 0.0 -8.202886 -8.002947 0.774604
8 1 1 0.0 -8.195128 -8.658380 0.019390
9 1 1 0.0 -8.077545 -9.227798 -0.794204
10 1 1 0.0 -7.632669 -9.715189 -1.545560
11 1 1 0.0 -7.033628 -9.937784 -2.314716
12 1 1 0.0 -6.448383 -10.164283 -3.093296
13 1 1 0.0 -5.880447 -10.392486 -3.884101
14 1 1 0.0 -5.302171 -10.607090 -4.671211
15 1 1 0.0 -4.656646 -10.590263 -5.434765
16 1 1 0.0 -3.944322 -10.795475 -6.105944
17 1 1 0.0 -3.231975 -11.000556 -6.777140
18 1 1 0.0 -2.365767 -11.323310 -7.158602
19 1 1 0.0 -1.393559 -11.459034 -7.349369
20 1 1 0.0 -0.412234 -11.277025 -7.411605
21 1 1 0.0 0.537605 -11.138797 -7.692138
22 1 1 0.0 1.380247 -10.877933 -8.163206
23 1 1 0.0 2.178194 -10.738759 -8.749645
24 1 1 0.0 2.912259 -10.319962 -9.284209
25 1 1 0.0 3.732481 -9.972134 -9.738358
26 1 1 0.0 4.526469 -9.891536 -10.340925
27 1 1 0.0 5.405232 -9.663836 -10.760362
28 1 1 0.0 6.225871 -9.127882 -10.958618
29 1 1 0.0 6.960771 -8.454012 -11.034917
30 1 1 0.0 7.622997 -7.721611 -10.876656
31 1 1 0.0 8.327704 -7.012287 -10.892375
32 1 1 0.0 9.198711 -6.558240 -11.079955
33 1 1 0.0 10.032642 -6.045270 -10.876435
34 1 1 0.0 10.601271 -5.430560 -10.329814
35 1 1 0.0 11.000582 -4.563254 -10.032610
36 1 1 0.0 11.392864 -3.693962 -9.731868
37 1 1 0.0 11.754098 -2.999164 -9.109963
38 1 1 0.0 11.852043 -2.300139 -8.513105
39 1 1 0.0 11.384557 -1.921842 -7.714138
40 1 1 0.0 10.919596 -1.524131 -6.923166
41 1 1 0.0 10.311689 -1.236473 -6.183097
42 1 1 0.0 9.669363 -1.099563 -5.428993
43 1 1 0.0 8.908527 -0.669669 -4.942867
44 1 1 0.0 8.161018 -0.173585 -4.501130
45 1 1 0.0 7.295843 0.324055 -4.439258
46 1 1 0.0 6.424416 0.716713 -4.145263
47 1 1 0.0 5.456646 0.964067 -4.097959
48 1 1 0.0 4.620404 1.475882 -3.901121
49 1 1 0.0 3.784216 1.961843 -3.646895
50 1 1 0.0 3.213840 2.732458 -3.362600
51 1 1 0.0 2.622371 3.529116 -3.238096
52 1 1 0.0 1.883839 4.185888 -3.085712
53 1 1 0.0 0.938900 4.508251 -3.029394
54 1 1 0.0 0.118558 4.811441 -2.544506
55 1 1 0.0 -0.713652 5.013769 -2.028281
56 1 1 0.0 -1.630265 5.322032 -1.773732
57 1 1 0.0 -2.563789 5.591404 -1.537148
58 1 1 0.0 -3.483142 5.981512 -1.486108
59 1 1 0.0 -4.292380 6.449786 -1.840866
60 1 1 0.0 -5.011696 7.002029 -2.262306
61 1 1 0.0 -5.693197 7.606301 -2.675115
62 1 1 0.0 -6.324427 8.192020 -3.183527
63 1 1 0.0 -7.143662 8.548919 -3.632390
64 1 1 0.0 -7.871493 8.991836 -4.155922
65 1 1 0.0 -8.744495 9.430790 -4.368495
66 1 1 0.0 -9.546677 9.999427 -4.550586
67 1 1 0.0 -10.314839 10.558076 -4.863376
68 1 1 0.0 -11.113020 11.065029 -5.188807
69 1 1 0.0 -11.882093 11.614948 -5.514561
70 1 1 0.0 -11.525730 11.587461 -5.629344
71 1 1 0.0 -10.891886 10.832166 -5.795990
72 1 1 0.0 -10.288297 10.040575 -5.700787
73 1 1 0.0 -9.811803 9.211118 -5.409317
74 1 1 0.0 -9.223112 8.405309 -5.345165
75 1 1 0.0 -8.658034 7.580547 -5.366454
76 1 1 0.0 -7.995108 6.832439 -5.395873
77 1 1 0.0 -7.315516 6.142467 -5.645055
78 1 1 0.0 -6.775956 5.307340 -5.752002
79 1 1 0.0 -6.241908 4.470627 -5.873262
80 1 1 0.0 -5.492577 3.846950 -6.095819
81 1 1 0.0 -4.677248 3.280400 -5.976406
82 1 1 0.0 -3.899882 2.656849 -5.893424
83 1 1 0.0 -3.118127 2.043416 -5.781354
84 1 1 0.0 -2.251152 1.566916 -5.635406
85 1 1 0.0 -1.261673 1.438964 -5.702942
86 1 1 0.0 -0.307750 1.481200 -5.405879
87 1 1 0.0 0.608426 1.560558 -5.013038
88 1 1 0.0 1.603719 1.491468 -4.945085
89 1 1 0.0 2.598764 1.577478 -4.895202
90 1 1 0.0 3.529850 1.327499 -4.629514
91 1 1 0.0 4.431792 1.005697 -4.341515
92 1 1 0.0 5.333672 0.709899 -4.026689
93 1 1 0.0 6.278479 0.596466 -3.719325
94 1 1 0.0 7.205714 0.318148 -3.468776
95 1 1 0.0 8.059726 0.336596 -2.948850
96 1 1 0.0 8.642406 0.157922 -2.156032
97 1 1 0.0 9.094448 -0.150738 -1.319141
98 1 1 0.0 9.522326 -0.046368 -0.421351
99 1 1 0.0 9.946689 0.053482 0.478619
100 1 1 0.0 10.279015 0.376723 1.364664
101 1 1 0.0 10.730013 0.553300 2.239547
102 1 1 0.0 11.313716 0.872394 2.986186
103 1 1 0.0 11.886793 1.204774 3.735256
104 1 1 0.0 11.685987 1.143087 4.637297
105 1 1 0.0 11.200295 1.473544 5.446556
106 1 1 0.0 10.775925 1.874905 6.258234
107 1 1 0.0 10.675318 2.328556 7.143716
108 1 1 0.0 10.684364 3.035268 7.851159
109 1 1 0.0 10.615052 3.663081 8.626431
110 1 1 0.0 10.597962 4.024522 9.558670
111 1 1 0.0 10.591060 4.169864 10.548027
112 1 1 0.0 10.503301 3.939748 11.517225
113 1 1 0.0 10.785473 3.817642 11.531213
114 1 1 0.0 10.816562 3.825372 10.531726
115 1 1 0.0 10.997082 3.427363 9.632281
116 1 1 0.0 10.882861 2.772562 8.885161
117 1 1 0.0 10.787218 2.304402 8.006708
118 1 1 0.0 10.950652 1.715485 7.215212
119 1 1 0.0 11.304439 1.041367 6.566831
120 1 1 0.0 11.831533 0.284846 6.179728
121 1 1 0.0 11.909645 -0.631391 5.873915
122 1 1 0.0 11.690785 -1.580060 5.645604
123 1 1 0.0 11.155523 -2.421698 5.573903
124 1 1 0.0 10.624870 -3.268413 5.612383
125 1 1 0.0 10.087870 -4.111577 5.638942
126 1 1 0.0 9.621491 -4.969458 5.854651
127 1 1 0.0 9.437887 -5.952111 5.828516
128 1 1 0.0 9.321448 -6.945014 5.804320
129 1 1 0.0 8.923134 -7.855004 5.919495
130 1 1 0.0 8.687169 -8.682686 6.428673
131 1 1 0.0 8.503085 -9.355646 7.145079
132 1 1 0.0 8.047387 -9.719491 7.957456
133 1 1 0.0 7.397284 -9.909183 8.693243
134 1 1 0.0 6.704006 -9.774137 9.401147
135 1 1 0.0 5.814319 -9.904043 9.838847
136 1 1 0.0 4.870354 -9.699209 10.097640
137 1 1 0.0 3.882169 -9.546279 10.107761
138 1 1 0.0 2.891070 -9.428142 10.169141
139 1 1 0.0 2.005677 -8.981948 10.038796
140 1 1 0.0 1.180898 -8.483210 9.772339
141 1 1 0.0 0.346887 -7.985002 9.535242
142 1 1 0.0 -0.441761 -7.412498 9.311026
143 1 1 0.0 -1.209797 -6.836960 9.030176
144 1 1 0.0 -1.934628 -6.179704 8.823691
145 1 1 0.0 -2.681709 -5.517732 8.763173
146 1 1 0.0 -3.277134 -4.860161 8.301578
147 1 1 0.0 -4.012895 -4.209337 8.114272
148 1 1 0.0 -4.807706 -3.606827 8.186778
149 1 1 0.0 -5.752801 -3.283171 8.141592
150 1 1 0.0 -6.610495 -2.784392 8.016772
151 1 1 0.0 -7.437938 -2.242379 7.869937
152 1 1 0.0 -7.962459 -1.391773 7.833220
153 1 1 0.0 -8.365376 -0.489378 7.985994
154 1 1 0.0 -8.766904 0.336497 8.381856
155 1 1 0.0 -9.105457 1.130969 8.886034
156 1 1 0.0 -9.338372 2.096278 9.004060
157 1 1 0.0 -9.573772 3.021019 9.303126
158 1 1 0.0 -9.715067 4.010774 9.323659
159 1 1 0.0 -9.687381 5.004062 9.435963
160 1 1 0.0 -9.669746 6.003905 9.437579
161 1 1 0.0 -9.624886 6.998892 9.526954
162 1 1 0.0 -9.656607 7.996483 9.588640
163 1 1 0.0 -9.718850 8.993677 9.630243
164 1 1 0.0 -9.909443 9.966848 9.759134
165 1 1 0.0 -9.943703 10.964052 9.825538
166 1 1 0.0 -9.798831 11.943032 9.681975
167 1 1 0.0 -9.964952 11.121255 9.370773
168 1 1 0.0 -10.097541 10.130214 9.354759
169 1 1 0.0 -10.155231 9.182581 9.668867
170 1 1 0.0 -9.914917 8.322086 10.118086
171 1 1 0.0 -9.792119 7.334247 10.213449
172 1 1 0.0 -9.501399 6.408181 9.972858
173 1 1 0.0 -9.009220 5.722695 9.436323
174 1 1 0.0 -8.489837 5.085980 8.866381
175 1 1 0.0 -7.782581 4.734497 8.252990
176 1 1 0.0 -7.097660 4.600110 7.536873
177 1 1 0.0 -6.538991 4.270240 6.775903
178 1 1 0.0 -5.858457 4.181025 6.048638
179 1 1 0.0 -5.091409 3.874025 5.485266
180 1 1 0.0 -4.676626 3.437805 4.686725
181 1 1 0.0 -4.160528 2.978900 3.963504
182 1 1 0.0 -3.719734 2.358387 3.314918
183 1 1 0.0 -3.257799 1.646853 2.785450
184 1 1 0.0 -2.808950 0.764336 2.645097
185 1 1 0.0 -2.508634 -0.181543 2.768072
186 1 1 0.0 -2.183157 -1.119591 2.886945
187 1 1 0.0 -1.895802 -2.073887 2.969074
188 1 1 0.0 -1.633644 -2.970298 2.611693
189 1 1 0.0 -1.153640 -3.803784 2.338018
190 1 1 0.0 -0.875573 -4.691981 1.972252
191 1 1 0.0 -0.807597 -5.532092 1.434114
192 1 1 0.0 -0.550007 -6.369498 0.952036
193 1 1 0.0 -0.239773 -7.066165 0.305191
194 1 1 0.0 -0.288435 -7.694424 -0.471290
195 1 1 0.0 -0.045489 -8.196207 -1.301465
196 1 1 0.0 -0.191145 -8.570503 -2.217264
197 1 1 0.0 -0.494444 -8.780907 -3.146640
198 1 1 0.0 -0.434996 -8.929381 -4.133768
199 1 1 0.0 -0.327413 -9.479162 -4.962119
200 1 1 0.0 -0.362206 -9.967935 -5.833836
201 1 2 0.0 -0.202783 -10.618416 -8.134353
202 1 2 0.0 -0.008237 -9.928765 -8.831872
203 1 2 0.0 0.170838 -9.249390 -9.543477
204 1 2 0.0 10.582311 -0.655129 -6.561124
205 1 2 0.0 10.289592 0.283781 -6.380114
206 1 2 0.0 9.945803 1.209626 -6.223210
207 1 2 0.0 -5.316179 6.735314 -1.347892
208 1 2 0.0 -5.673650 6.370706 -0.488081
209 1 2 0.0 -6.076010 6.004635 0.351025
210 1 2 0.0 -5.839906 4.325950 -6.901996
211 1 2 0.0 -5.940953 4.719891 -7.815560
212 1 2 0.0 -5.886412 5.224733 -8.677047
213 1 2 0.0 9.577998 1.002681 1.022975
214 1 2 0.0 8.889140 1.645808 0.688515
215 1 2 0.0 8.211781 2.271762 0.302036
216 1 2 0.0 11.344291 -0.256690 6.013977
217 1 2 0.0 10.516008 -0.814282 6.069090
218 1 2 0.0 9.643715 -1.295984 6.153164
219 1 2 0.0 1.856060 -8.421319 10.507408
220 1 2 0.0 2.222868 -8.506044 11.433838
221 1 2 0.0 2.248613 -8.432125 11.569230
222 1 2 0.0 -9.248749 5.654463 10.274628
223 1 2 0.0 -8.810922 5.076311 10.963139
224 1 2 0.0 -8.353738 4.812156 11.812377
225 1 2 0.0 -4.766657 2.874774 5.508242
226 1 2 0.0 -4.629303 2.316713 6.326595
227 1 2 0.0 -4.289143 1.954434 7.194377
228 2 1 0.0 6.410511 -2.198175 -6.661442
229 2 1 0.0 5.957689 -1.700021 -5.921986
230 2 1 0.0 5.424235 -1.203584 -5.237167
231 2 1 0.0 4.932049 -0.722675 -4.511579
232 2 1 0.0 4.739146 -0.338665 -3.608625
233 2 1 0.0 4.342193 0.192453 -2.860065
234 2 1 0.0 4.245526 0.764345 -2.045452
235 2 1 0.0 3.735535 1.209297 -1.309295
236 2 1 0.0 3.586009 1.687566 -0.443904
237 2 1 0.0 3.511506 2.373673 0.279771
238 2 1 0.0 3.635783 2.981733 1.063874
239 2 1 0.0 3.573084 3.819276 1.606637
240 2 1 0.0 3.351948 4.655908 2.107781
241 2 1 0.0 2.781069 5.428914 2.384475
242 2 1 0.0 2.559535 6.383628 2.583080
243 2 1 0.0 2.478907 7.377912 2.513089
244 2 1 0.0 2.453996 8.320023 2.178715
245 2 1 0.0 2.726671 9.184892 1.757229
246 2 1 0.0 3.206194 9.782499 1.114639
247 2 1 0.0 3.337455 10.624682 0.591668
248 2 1 0.0 3.108281 11.510889 0.189031
249 2 1 0.0 2.818428 11.532696 0.153606
250 2 1 0.0 2.682815 10.544723 0.079310
251 2 1 0.0 2.464603 9.571051 0.013387
252 2 1 0.0 2.419804 8.579628 -0.109386
253 2 1 0.0 2.437872 7.586754 0.008407
254 2 1 0.0 2.401791 6.653032 0.364583
255 2 1 0.0 2.293837 5.781127 0.842209
256 2 1 0.0 2.426135 5.049447 1.510896
257 2 1 0.0 2.338329 4.201040 2.032908
258 2 1 0.0 2.641382 3.343039 2.447628
259 2 1 0.0 2.872043 2.409649 2.722542
260 2 1 0.0 3.406657 1.564559 2.719423
261 2 1 0.0 3.927357 0.751270 2.979104
262 2 1 0.0 4.119575 -0.142908 3.383453
263 2 1 0.0 4.320168 -1.069969 3.700187
264 2 1 0.0 4.181054 -1.974443 4.103390
265 2 1 0.0 4.044882 -2.897436 4.463309
266 2 1 0.0 4.132258 -3.838997 4.788621
267 2 1 0.0 4.259825 -4.769285 5.132557
268 2 1 0.0 4.415890 -5.726759 5.375220
269 2 1 0.0 4.351038 -6.701647 5.588266
270 2 1 0.0 4.670746 -7.606782 5.868477
271 2 1 0.0 5.279334 -8.400264 5.870999
272 2 1 0.0 5.833610 -9.220488 6.012454
273 2 1 0.0 5.997200 -10.176747 6.254959
274 2 1 0.0 6.272752 -11.086302 6.566053
275 2 1 0.0 6.383457 -11.933989 6.733133
276 2 1 0.0 6.212194 -10.990930 7.018278
277 2 1 0.0 6.161045 -10.002564 7.161516
278 2 1 0.0 6.135344 -9.014981 7.316498
279 2 1 0.0 6.262249 -8.042648 7.512617
280 2 1 0.0 6.503825 -7.111145 7.784544
281 2 1 0.0 6.851711 -6.174150 7.816408
282 2 1 0.0 7.162294 -5.224012 7.788554
283 2 1 0.0 7.275582 -4.247305 7.970787
284 2 1 0.0 7.596816 -3.393864 8.381210
285 2 1 0.0 7.654655 -2.455383 8.721664
286 2 1 0.0 7.474968 -1.626998 9.252221
287 2 1 0.0 7.009958 -0.786097 9.529081
288 2 1 0.0 6.360610 -0.233322 10.051371
289 2 1 0.0 5.957912 0.564628 10.499825
290 2 1 0.0 5.486650 1.358770 10.883556
291 2 1 0.0 5.372724 2.172639 11.453326
292 2 1 0.0 4.942576 2.898540 11.990020
293 2 1 0.0 4.201786 3.496576 11.704064
294 2 1 0.0 3.547868 4.004962 11.143766
295 2 1 0.0 2.977620 4.758824 10.817408
296 2 1 0.0 2.541147 5.633274 10.605679
297 2 1 0.0 1.761499 6.240740 10.453585
298 2 1 0.0 1.146443 7.027452 10.506424
299 2 1 0.0 0.774687 7.953348 10.573610
300 2 1 0.0 0.332227 8.834594 10.739844
301 2 1 0.0 -0.097245 9.714712 10.537492
302 2 1 0.0 -0.582106 10.375611 9.964672
303 2 1 0.0 -1.316330 10.680801 9.358228
304 2 1 0.0 -2.089299 11.025219 8.825410
305 2 1 0.0 -2.888424 11.353062 8.321508
306 2 1 0.0 -3.790901 11.738264 8.128752
307 2 1 0.0 -4.711676 11.874561 8.081123
308 2 1 0.0 -5.528513 11.386727 7.773235
309 2 1 0.0 -6.333460 10.858818 7.502361
310 2 1 0.0 -7.007883 10.131172 7.377121
311 2 1 0.0 -7.629142 9.403385 7.086667
312 2 1 0.0 -8.133259 8.554278 6.928924
313 2 1 0.0 -8.409715 7.611853 6.740753
314 2 1 0.0 -8.896579 6.750597 6.595149
315 2 1 0.0 -9.327732 5.868235 6.406615
316 2 1 0.0 -9.976996 5.197100 6.048798
317 2 1 0.0 -10.887817 4.836851 5.847237
318 2 1 0.0 -11.887785 4.831526 5.841241
319 2 1 0.0 -11.114990 4.894502 5.801541
320 2 1 0.0 -10.116134 4.931162 5.770833
321 2 1 0.0 -9.157476 4.943650 5.486547
322 2 1 0.0 -8.202828 4.955453 5.189044
323 2 1 0.0 -7.220100 5.126705 5.259168
324 2 1 0.0 -6.351757 5.543544 5.527917
325 2 1 0.0 -5.624241 6.227722 5.476717
326 2 1 0.0 -4.902737 6.919338 5.443560
327 2 1 0.0 -4.229051 7.627875 5.653613
328 2 1 0.0 -3.604849 8.390042 5.825290
329 2 1 0.0 -2.906426 9.078699 6.020116
330 2 1 0.0 -2.303518 9.846089 6.238322
331 2 1 0.0 -2.014002 10.802615 6.273506
332 2 1 0.0 -1.511078 11.590534 6.628824
333 2 1 0.0 -1.264724 11.510776 6.991684
334 2 1 0.0 -1.342102 10.633707 7.465775
335 2 1 0.0 -1.496011 9.683886 7.738083
336 2 1 0.0 -1.402651 8.703575 7.912079
337 2 1 0.0 -1.497483 7.709677 7.968408
338 2 1 0.0 -1.644975 6.794482 8.343462
339 2 1 0.0 -2.198874 6.016663 8.640437
340 2 1 0.0 -2.583391 5.122707 8.870628
341 2 1 0.0 -2.962825 4.242365 9.155283
342 2 1 0.0 -3.370057 3.394985 9.496030
343 2 1 0.0 -3.958593 2.680228 9.873851
344 2 1 0.0 -4.658344 2.113810 10.309189
345 2 1 0.0 -5.284317 1.477202 10.759621
346 2 1 0.0 -5.771177 0.835134 11.351833
347 2 1 0.0 -6.392600 0.532718 11.925410
348 2 1 0.0 -6.818216 0.323178 11.045101
349 2 1 0.0 -7.479300 -0.123898 10.442531
350 2 1 0.0 -7.909642 -0.320355 9.561503
351 2 1 0.0 -8.320748 -0.453375 8.659672
352 2 1 0.0 -8.378726 -0.345868 7.667160
353 2 1 0.0 -8.452829 -0.145752 6.690194
354 2 1 0.0 -8.519630 -0.192077 5.693504
355 2 1 0.0 -8.254632 -0.427318 4.758390
356 2 1 0.0 -8.167083 -0.750565 3.816134
357 2 1 0.0 -7.930665 -0.826367 2.847444
358 2 1 0.0 -7.452344 -1.060054 2.000922
359 2 1 0.0 -6.770872 -1.543132 1.451166
360 2 1 0.0 -6.169305 -1.866367 0.720661
361 2 1 0.0 -5.559101 -2.219454 0.011451
362 2 1 0.0 -4.976008 -2.669101 -0.665174
363 2 1 0.0 -4.271741 -3.267009 -1.047945
364 2 1 0.0 -3.558138 -3.886550 -1.374962
365 2 1 0.0 -2.856646 -4.544710 -1.648338
366 2 1 0.0 -2.223219 -5.003746 -2.271279
367 2 1 0.0 -1.446954 -5.327350 -2.812290
368 2 1 0.0 -0.549837 -5.729675 -2.994816
369 2 1 0.0 0.325320 -6.127252 -3.270556
370 2 1 0.0 1.224944 -6.563900 -3.274513
371 2 1 0.0 2.142296 -6.961539 -3.293212
372 2 1 0.0 3.112809 -7.180883 -3.393167
373 2 1 0.0 3.986109 -7.501371 -3.760093
374 2 1 0.0 4.836023 -7.855052 -4.150677
375 2 1 0.0 5.774762 -8.009536 -4.458741
376 2 1 0.0 6.541366 -8.377942 -4.984665
377 2 1 0.0 7.355104 -8.743861 -5.436255
378 2 1 0.0 8.027005 -9.289794 -5.936760
379 2 1 0.0 8.875922 -9.570609 -6.384514
380 2 1 0.0 9.826554 -9.681360 -6.674400
381 2 1 0.0 10.701501 -9.858203 -7.125171
382 2 1 0.0 11.550590 -10.147753 -7.566994
383 2 1 0.0 11.597526 -10.441341 -8.000699
384 2 1 0.0 10.698579 -10.690849 -8.360754
385 2 1 0.0 9.813403 -10.946701 -8.749345
386 2 1 0.0 8.879881 -11.305221 -8.749228
387 2 1 0.0 8.004352 -11.782741 -8.822866
388 2 1 0.0 7.086167 -11.842090 -8.950090
389 2 1 0.0 6.150900 -11.493585 -8.888280
390 2 1 0.0 5.247323 -11.067005 -8.848573
391 2 1 0.0 4.310340 -10.905963 -8.538525
392 2 1 0.0 3.357141 -10.778892 -8.264184
393 2 1 0.0 2.403900 -10.652029 -7.989889
394 2 1 0.0 1.440758 -10.392472 -8.060515
395 2 1 0.0 0.627368 -9.840154 -7.877918
396 2 1 0.0 -0.198144 -9.308243 -7.689235
397 2 1 0.0 -1.009228 -8.743248 -7.537832
398 2 1 0.0 -1.710281 -8.305757 -6.974692
399 2 1 0.0 -2.287240 -7.841745 -6.302523
400 2 1 0.0 -2.798184 -7.489858 -5.518233
401 2 1 0.0 -3.245471 -6.872243 -4.871328
402 2 1 0.0 -3.813750 -6.184896 -4.418985
403 2 1 0.0 -4.122193 -5.546973 -3.713353
404 2 1 0.0 -4.625008 -4.984744 -3.056790
405 2 1 0.0 -5.071476 -4.318817 -2.459121
406 2 1 0.0 -5.763429 -3.714116 -2.064739
407 2 1 0.0 -6.178915 -3.116234 -1.379240
408 2 1 0.0 -6.402251 -2.417235 -0.699886
409 2 1 0.0 -6.537478 -1.826606 0.095646
410 2 1 0.0 -6.576841 -1.541718 1.053398
411 2 1 0.0 -6.716749 -1.145406 1.960791
412 2 1 0.0 -7.271086 -0.832079 2.731853
413 2 1 0.0 -8.067816 -0.618374 3.297143
414 2 1 0.0 -8.822712 -0.336771 3.889453
415 2 1 0.0 -9.411904 0.017656 4.615562
416 2 1 0.0 -10.013839 0.022413 5.414093
417 2 1 0.0 -10.620907 0.034300 6.208654
418 2 1 0.0 -11.002722 0.079134 7.131805
419 2 1 0.0 -11.248529 -0.273629 8.034654
420 2 1 0.0 -11.311865 -0.717440 8.928534
421 2 1 0.0 -11.322213 -1.019259 9.881843
422 2 1 0.0 -11.342876 -1.359401 10.821990
423 2 1 0.0 -11.303738 -1.723403 11.752565
424 2 1 0.0 -10.959493 -1.805326 11.312136
425 2 1 0.0 -10.546580 -2.016389 10.426159
426 2 1 0.0 -9.811547 -2.071718 9.750389
427 2 1 0.0 -9.006229 -2.100745 9.158256
428 2 2 0.0 2.728316 10.741436 1.376089
429 2 2 0.0 2.104892 10.865157 2.148123
430 2 2 0.0 1.337705 10.895375 2.788834
431 2 2 0.0 3.631969 -5.543033 5.216878
432 2 2 0.0 2.999801 -6.313618 5.297892
433 2 2 0.0 2.554025 -7.198048 5.159809
434 2 2 0.0 7.857455 -0.716098 10.055246
435 2 2 0.0 8.396462 -0.518017 10.873925
436 2 2 0.0 8.936413 -0.316224 11.691074
437 2 2 0.0 -3.989652 11.233712 7.820368
438 2 2 0.0 -3.264476 10.595728 7.561339
439 2 2 0.0 -2.557484 9.949583 7.273833
440 2 2 0.0 -4.347374 8.070752 6.542354
441 2 2 0.0 -4.554729 8.526265 7.408097
442 2 2 0.0 -4.583824 9.100679 8.226145
443 2 2 0.0 -7.381907 0.529234 11.928789
444 2 2 0.0 -8.357191 0.313440 11.976281
445 2 2 0.0 -9.208500 -0.024974 11.622783
446 2 2 0.0 -2.174967 -5.143885 -2.151731
447 2 2 0.0 -2.952276 -4.920550 -1.563588
448 2 2 0.0 -3.884856 -4.795583 -1.224946
449 2 2 0.0 7.351700 -11.315333 -8.226564
450 2 2 0.0 6.453107 -11.134106 -7.826955
451 2 2 0.0 5.527911 -10.876526 -7.548270
452 2 2 0.0 -6.609814 -2.215016 -1.333044
453 2 2 0.0 -6.777084 -1.243764 -1.163666
454 2 2 0.0 -6.671247 -0.256729 -1.284335
455 3 1 0.0 -9.702821 -9.590598 3.923963
456 3 1 0.0 -10.155348 -8.844424 4.412269
457 3 1 0.0 -10.545354 -8.126776 4.989223
458 3 1 0.0 -10.692057 -7.277627 5.496595
459 3 1 0.0 -10.978362 -6.340160 5.694543
460 3 1 0.0 -11.205098 -5.415258 5.999745
461 3 1 0.0 -11.412685 -4.451117 6.165092
462 3 1 0.0 -11.505778 -3.456460 6.120478
463 3 1 0.0 -11.871350 -2.588533 5.784233
464 3 1 0.0 -11.543849 -1.877404 5.393972
465 3 1 0.0 -11.030990 -1.043462 5.190219
466 3 1 0.0 -10.684759 -0.105692 5.216906
467 3 1 0.0 -10.752117 0.891435 5.182263
468 3 1 0.0 -11.234028 1.765714 5.240566
469 3 1 0.0 -11.329941 2.755495 5.135054
470 3 1 0.0 -11.740243 3.609377 4.814837
471 3 1 0.0 -11.920020 4.575644 4.630424
472 3 1 0.0 -11.731545 5.492888 4.823444
473 3 1 0.0 -11.453106 6.449245 4.734833
474 3 1 0.0 -11.278724 7.431362 4.805806
475 3 1 0.0 -10.884514 8.350339 4.814793
476 3 1 0.0 -10.341359 9.172342 4.643642
477 3 1 0.0 -9.887432 10.057853 4.544539
478 3 1 0.0 -9.445839 10.897512 4.860717
479 3 1 0.0 -9.045264 11.813655 4.845833
480 3 1 0.0 -8.449875 11.392668 4.720982
481 3 1 0.0 -7.810228 10.745814 4.305732
482 3 1 0.0 -7.398654 9.851637 4.129509
483 3 1 0.0 -6.934154 9.016559 3.834749
484 3 1 0.0 -6.650898 8.246484 3.263127
485 3 1 0.0 -6.333480 7.494486 2.685421
486 3 1 0.0 -5.933517 6.901807 1.986307
487 3 1 0.0 -5.761223 6.313543 1.196206
488 3 1 0.0 -5.454944 5.772334 0.413080
489 3 1 0.0 -5.155840 5.227493 -0.370301
490 3 1 0.0 -4.958524 4.772256 -1.238532
491 3 1 0.0 -4.639535 4.265026 -2.039135
492 3 1 0.0 -4.351925 3.766992 -2.857207
493 3 1 0.0 -4.356236 3.162638 -3.653912
494 3 1 0.0 -4.223273 2.612256 -4.478169
495 3 1 0.0 -4.204810 2.094880 -5.333728
496 3 1 0.0 -4.071357 1.501196 -6.127283
497 3 1 0.0 -3.979190 0.972384 -6.971003
498 3 1 0.0 -3.895829 0.437929 -7.812079
499 3 1 0.0 -3.830888 -0.356647 -8.415761
500 3 1 0.0 -3.765586 -1.149989 -9.021024
501 3 1 0.0 -3.973835 -1.847911 -9.706253
502 3 1 0.0 -4.065614 -2.633149 -10.318607
503 3 1 0.0 -3.971410 -3.594835 -10.576067
504 3 1 0.0 -4.294116 -4.523751 -10.757660
505 3 1 0.0 -4.380862 -5.416661 -11.199458
506 3 1 0.0 -4.660162 -6.202630 -11.751042
507 3 1 0.0 -4.966343 -6.961013 -11.673538
508 3 1 0.0 -5.203864 -7.871048 -11.333804
509 3 1 0.0 -5.410805 -8.799042 -11.023960
510 3 1 0.0 -5.465870 -9.702873 -10.599629
511 3 1 0.0 -5.432649 -10.653141 -10.289971
512 3 1 0.0 -5.251008 -11.624093 -10.134223
513 3 1 0.0 -5.176448 -11.393332 -9.963963
514 3 1 0.0 -4.811149 -10.523362 -9.632739
515 3 1 0.0 -4.159088 -9.870219 -9.247746
516 3 1 0.0 -3.353897 -9.519581 -8.769499
517 3 1 0.0 -2.488695 -9.328391 -8.305956
518 3 1 0.0 -1.589775 -9.154837 -7.903684
519 3 1 0.0 -0.634416 -9.337034 -7.671106
520 3 1 0.0 0.337711 -9.570377 -7.693917
521 3 1 0.0 1.233254 -9.741332 -8.104742
522 3 1 0.0 2.189969 -9.590738 -8.353773
523 3 1 0.0 3.162735 -9.499514 -8.566858
524 3 1 0.0 4.085128 -9.404769 -8.941312
525 3 1 0.0 5.078264 -9.403760 -9.058271
526 3 1 0.0 6.049866 -9.202470 -8.933889
527 3 1 0.0 6.966681 -8.870710 -9.156119
528 3 1 0.0 7.883779 -8.548952 -9.391497
529 3 1 0.0 8.876137 -8.426061 -9.402581
530 3 1 0.0 9.768435 -7.990393 -9.520894
531 3 1 0.0 10.537536 -7.379033 -9.707235
532 3 1 0.0 11.149176 -6.682300 -10.082013
533 3 1 0.0 11.744021 -5.967384 -10.449511
534 3 1 0.0 11.804602 -5.272132 -11.008871
535 3 1 0.0 11.239853 -4.494129 -11.284134
536 3 1 0.0 10.905516 -3.596007 -11.569785
537 3 1 0.0 10.546402 -2.712966 -11.871904
538 3 1 0.0 10.565376 -1.719244 -11.982161
539 3 1 0.0 10.704370 -0.729478 -11.949873
540 3 1 0.0 10.809811 0.250599 -11.781554
541 3 1 0.0 10.736542 1.240538 -11.660505
542 3 1 0.0 10.643041 2.225285 -11.513773
543 3 1 0.0 10.765196 3.217714 -11.501012
544 3 1 0.0 11.024443 4.172600 -11.356153
545 3 1 0.0 11.151428 5.153567 -11.209257
546 3 1 0.0 11.306942 6.133980 -11.088399
547 3 1 0.0 11.191966 7.112138 -10.915229
548 3 1 0.0 11.115009 8.108258 -10.957915
549 3 1 0.0 11.352915 9.066247 -11.118095
550 3 1 0.0 11.294786 10.054972 -11.256096
551 3 1 0.0 11.172633 11.031464 -11.433696
552 3 1 0.0 11.008750 11.984718 -11.506113
553 3 1 0.0 10.881042 10.993355 -11.535934
554 3 1 0.0 10.850485 9.993871 -11.545900
555 3 1 0.0 10.599175 9.031058 -11.645068
556 3 1 0.0 10.365227 8.066143 -11.764262
557 3 1 0.0 10.295641 7.102468 -11.977885
558 3 1 0.0 10.083154 6.127713 -11.909316
559 3 1 0.0 10.021839 5.147183 -11.904133
560 3 1 0.0 9.892623 4.181260 -11.871599
561 3 1 0.0 9.772162 3.191597 -11.949429
562 3 1 0.0 9.741173 2.239124 -11.747531
563 3 1 0.0 9.626542 1.253260 -11.625330
564 3 1 0.0 9.484939 0.319643 -11.296231
565 3 1 0.0 9.283642 -0.565317 -10.876319
566 3 1 0.0 9.210697 -1.499051 -10.525861
567 3 1 0.0 9.078463 -2.430672 -10.187342
568 3 1 0.0 8.925628 -3.392764 -9.961464
569 3 1 0.0 8.677195 -4.275897 -9.563522
570 3 1 0.0 8.500862 -5.247918 -9.408335
571 3 1 0.0 8.303869 -6.210835 -9.223990
572 3 1 0.0 8.350460 -7.198438 -9.074087
573 3 1 0.0 8.379254 -8.184955 -8.912981
574 3 1 0.0 8.728066 -9.121843 -8.889095
575 3 1 0.0 9.080896 -10.057396 -8.873230
576 3 1 0.0 9.431432 -10.993679 -8.850909
577 3 1 0.0 9.822808 -11.902465 -8.995589
578 3 1 0.0 10.276349 -11.268688 -9.323176
579 3 1 0.0 10.525398 -10.350553 -9.631401
580 3 1 0.0 10.867046 -9.423470 -9.785654
581 3 1 0.0 11.258071 -8.517577 -9.948313
582 3 1 0.0 11.660873 -7.669451 -10.292455
583 3 1 0.0 11.679500 -7.028265 -10.684592
584 3 1 0.0 11.001443 -6.372469 -11.016510
585 3 1 0.0 10.479557 -5.587682 -11.350794
586 3 1 0.0 9.887608 -4.929004 -11.815271
587 3 1 0.0 9.334985 -4.175881 -11.827777
588 3 1 0.0 9.168797 -3.270403 -11.437278
589 3 1 0.0 9.324553 -2.428544 -10.920544
590 3 1 0.0 9.575015 -1.613448 -10.398157
591 3 1 0.0 10.154949 -0.862882 -10.081412
592 3 1 0.0 10.843895 -0.219866 -9.746923
593 3 1 0.0 11.715511 0.216586 -9.523773
594 3 1 0.0 11.426497 0.688106 -9.320012
595 3 1 0.0 10.742096 1.296302 -8.917902
596 3 1 0.0 10.310123 2.067926 -8.451001
597 3 1 0.0 9.634374 2.675344 -8.033381
598 3 1 0.0 8.941165 3.251941 -7.600949
599 3 1 0.0 8.269956 3.904381 -7.249098
600 3 1 0.0 7.588642 4.633798 -7.187763
601 3 1 0.0 7.044543 5.445402 -6.975027
602 3 1 0.0 6.546218 6.293351 -6.794321
603 3 1 0.0 6.066691 7.131218 -6.533489
604 3 1 0.0 5.713074 8.039845 -6.311336
605 3 1 0.0 5.396735 8.978097 -6.171292
606 3 1 0.0 5.439273 9.976510 -6.208196
607 3 1 0.0 5.527321 10.933607 -5.932129
608 3 1 0.0 5.370635 11.898450 -5.721115
609 3 1 0.0 5.410714 11.131779 -5.480412
610 3 1 0.0 5.808159 10.318956 -5.054551
611 3 1 0.0 6.420016 9.582484 -4.766038
612 3 1 0.0 6.993544 8.816854 -4.474706
613 3 1 0.0 7.224812 7.967700 -3.999887
614 3 1 0.0 7.430709 7.122740 -3.506278
615 3 1 0.0 7.808360 6.368086 -2.969737
616 3 1 0.0 8.370628 5.948394 -2.257196
617 3 1 0.0 8.913573 5.568074 -1.508486
618 3 1 0.0 9.410226 5.110479 -0.770961
619 3 1 0.0 9.485140 4.653431 0.115321
620 3 1 0.0 9.731724 4.071662 0.890395
621 3 1 0.0 10.233338 3.541254 1.573806
622 3 1 0.0 10.742543 2.992351 2.236691
623 3 1 0.0 11.216935 2.493901 2.962294
624 3 1 0.0 11.887274 2.177731 3.633622
625 3 1 0.0 11.342880 1.991932 4.244209
626 3 1 0.0 10.574070 1.720234 4.823096
627 3 1 0.0 9.956641 1.326250 5.503947
628 3 1 0.0 9.330055 1.186579 6.270682
629 3 1 0.0 8.629754 0.987692 6.956264
630 3 1 0.0 8.112325 0.551904 7.692712
631 3 1 0.0 7.993298 -0.025954 8.500123
632 3 1 0.0 7.986801 -0.712739 9.226955
633 3 1 0.0 7.947962 -1.249724 10.069652
634 3 1 0.0 8.210439 -1.947181 10.736480
635 3 1 0.0 8.309459 -2.571365 11.511457
636 3 1 0.0 8.399103 -2.955939 11.569812
637 3 1 0.0 8.594223 -3.267668 10.639891
638 3 1 0.0 8.647864 -3.396117 9.649627
639 3 1 0.0 8.606928 -3.411081 8.650577
640 3 1 0.0 8.819061 -3.535963 7.681348
641 3 1 0.0 9.104382 -3.402627 6.732236
642 3 1 0.0 9.680706 -3.079966 5.981409
643 3 1 0.0 10.116288 -2.970877 5.087895
644 3 1 0.0 10.746581 -3.059923 4.316661
645 3 1 0.0 11.153090 -3.237087 3.420356
646 3 1 0.0 11.726024 -3.525916 2.653333
647 3 1 0.0 11.494426 -3.527682 2.026995
648 3 1 0.0 10.543931 -3.627261 1.732643
649 3 1 0.0 9.554511 -3.505680 1.811796
650 3 1 0.0 8.567883 -3.567956 1.661171
651 3 1 0.0 7.666968 -3.861378 1.341396
652 3 1 0.0 6.748222 -3.990984 0.968426
653 3 1 0.0 6.029693 -4.193091 0.302942
654 3 1 0.0 5.180821 -4.546538 -0.090114
655 3 2 0.0 -11.304629 6.837800 4.001435
656 3 2 0.0 -11.134591 6.441891 3.099025
657 3 2 0.0 -11.038174 6.091610 2.167356
658 3 2 0.0 -3.879650 2.975205 -3.612033
659 3 2 0.0 -3.454451 3.626157 -2.983171
660 3 2 0.0 -2.845182 4.165168 -2.401571
661 3 2 0.0 -5.480983 -10.646272 -10.365006
662 3 2 0.0 -6.186016 -11.076436 -10.928822
663 3 2 0.0 -6.868044 -11.576114 -11.462826
664 3 2 0.0 11.747561 -4.383036 -10.914263
665 3 2 0.0 11.313222 -3.554656 -10.560516
666 3 2 0.0 10.975642 -2.625133 -10.412104
667 3 2 0.0 10.988492 9.063003 -11.884186
668 3 2 0.0 11.188088 8.124576 -11.833826
669 3 2 0.0 11.567707 7.215269 -11.663384
670 3 2 0.0 8.540583 -9.663366 -8.069580
671 3 2 0.0 8.300257 -10.297013 -7.334234
672 3 2 0.0 8.092893 -10.871094 -6.542128
673 3 2 0.0 11.729265 1.152437 -9.587704
674 3 2 0.0 10.885042 1.617689 -9.853839
675 3 2 0.0 10.070483 2.076442 -10.208861
676 3 2 0.0 6.596479 6.572018 -3.478612
677 3 2 0.0 5.863031 5.898227 -3.388834
678 3 2 0.0 5.050671 5.328184 -3.265862
679 3 2 0.0 7.627598 -1.141972 10.845723
680 3 2 0.0 6.871353 -0.496997 10.735715
681 3 2 0.0 6.067816 0.096382 10.782940
682 4 1 0.0 9.076698 1.493664 2.915356
683 4 1 0.0 9.568432 0.813229 2.372028
684 4 1 0.0 9.949416 0.194701 1.684806
685 4 1 0.0 10.050434 -0.185755 0.765541
686 4 1 0.0 10.130047 -0.708992 -0.082919
687 4 1 0.0 10.204255 -1.173229 -0.965516
688 4 1 0.0 10.273843 -1.641561 -1.846324
689 4 1 0.0 10.667459 -1.929862 -2.719221
690 4 1 0.0 11.305364 -1.991615 -3.486856
691 4 1 0.0 11.878214 -2.290343 -3.981038
692 4 1 0.0 11.016680 -2.652641 -4.336706
693 4 1 0.0 10.211532 -3.228112 -4.480128
694 4 1 0.0 9.419449 -3.818953 -4.633464
695 4 1 0.0 8.566612 -4.333332 -4.543561
696 4 1 0.0 7.648783 -4.674339 -4.340328
697 4 1 0.0 6.756128 -5.098955 -4.189102
698 4 1 0.0 5.862628 -5.452716 -4.465707
699 4 1 0.0 5.139465 -5.987924 -4.902271
700 4 1 0.0 4.541605 -6.407236 -5.585455
701 4 1 0.0 4.070467 -7.026739 -6.213344
702 4 1 0.0 3.710393 -7.670554 -6.888511
703 4 1 0.0 3.332059 -8.320877 -7.547255
704 4 1 0.0 3.177572 -8.894778 -8.351475
705 4 1 0.0 2.826099 -9.416164 -9.129051
706 4 1 0.0 2.471744 -9.928362 -9.911410
707 4 1 0.0 2.245162 -10.112610 -10.867816
708 4 1 0.0 1.789774 -10.176952 -11.755782
709 4 1 0.0 1.490139 -9.890403 -11.334214
710 4 1 0.0 1.581736 -9.420014 -10.456522
711 4 1 0.0 1.410688 -8.997769 -9.566324
712 4 1 0.0 1.552047 -8.454013 -8.739071
713 4 1 0.0 1.687621 -7.917991 -7.905824
714 4 1 0.0 1.626050 -7.454358 -7.021939
715 4 1 0.0 1.517086 -7.115070 -6.087589
716 4 1 0.0 1.612838 -6.570786 -5.254171
717 4 1 0.0 1.728920 -6.000404 -4.441035
718 4 1 0.0 1.948672 -5.337618 -3.725197
719 4 1 0.0 1.935816 -4.822282 -2.868305
720 4 1 0.0 1.905239 -4.292515 -2.020714
721 4 1 0.0 1.876397 -3.759611 -1.175029
722 4 1 0.0 1.634791 -3.478413 -0.246291
723 4 1 0.0 1.608213 -2.981766 0.621254
724 4 1 0.0 1.790604 -2.790548 1.585707
725 4 1 0.0 1.641890 -2.742173 2.573403
726 4 1 0.0 1.679781 -2.596832 3.562059
727 4 1 0.0 1.714353 -2.455443 4.551409
728 4 1 0.0 1.775999 -2.702007 5.518573
729 4 1 0.0 1.515409 -2.761013 6.482217